ITEM: TIMESTEP
100000
ITEM: NUMBER OF ATOMS
8192
ITEM: BOX BOUNDS pp pp fixed
0	74.5292
0	37.2646
0	37.2646
ITEM: ATOMS id radius xu yu zu
1	0.752201	43.0865	9.12882	8.16445
2	0.911071	57.9966	29.865	13.9683
3	1.13998	55.3895	13.7402	11.407
4	1.11846	65.8271	37.1937	2.29208
5	1.21302	31.3744	25.2972	1.22843
6	0.916338	59.22	14.3291	9.12972
7	0.94293	30.6172	20.6981	18.3495
8	1.1148	25.7678	21.9857	15.417
9	0.948623	29.9345	29.8245	5.54659
10	0.796563	27.1575	1.18885	14.3628
11	0.950575	9.05246	30.0938	12.1295
12	0.982805	1.96074	13.4606	17.1999
13	1.32532	16.4793	2.87045	9.2523
14	1.25266	30.6687	36.0195	10.5151
15	0.891045	1.10765	17.4432	3.21457
16	1.01886	9.30775	5.72641	4.11235
17	0.932596	28.4261	19.0152	7.58991
18	1.04732	70.8699	22.621	11.813
19	0.968394	54.5998	6.55758	17.055
20	0.961006	52.5147	16.5417	19.2351
21	0.955352	55.4766	5.82748	12.2463
22	0.966433	51.6848	18.7182	8.8081
23	1.11837	56.0859	13.8914	4.91674
24	1.07212	13.0531	20.7398	20.4505
25	1.09706	21.652	10.5207	8.24809
26	1.06113	2.7235	25.2412	12.7965
27	0.631491	29.0711	29.0546	4.50114
28	1.29618	40.9663	12.7652	20.5358
29	1.18211	16.7167	29.4006	6.50159
30	1.04163	29.2635	3.50699	11.0229
31	0.903817	34.0646	22.3584	6.79335
32	1.06105	0.967247	22.5886	8.77191
33	1.80365	63.0868	18.932	1.8196
34	1.03949	73.564	0.839098	9.4176
35	0.942553	73.3374	11.8796	10.2836
36	0.914127	70.5897	24.3594	0.936248
37	0.940364	24.0955	13.9166	4.14784
38	0.693787	15.8175	31.07	13.8503
39	1.07364	42.5261	20.2134	12.7384
40	1.20726	42.0999	0.331714	13.6795
41	0.882454	51.4283	23.7261	14.6158
42	0.889689	70.8107	4.14279	8.15059
43	0.695041	4.26117	30.1764	9.78743
44	0.887374	4.83421	28.3471	17.9444
45	1.12992	18.0901	6.8827	3.56224
46	1.10082	34.9205	25.9331	18.773
47	0.740655	72.6653	14.9024	10.1377
48	1.33474	45.5731	23.1201	2.8949
49	1.21734	16.7217	14.4964	14.4955
50	1.55619	19.9434	7.04435	7.70532
51	0.982922	74.3047	2.27395	8.27233
52	0.818812	42.9612	8.82254	5.2189
53	1.09254	1.25957	7.71645	18.307
54	1.29757	54.7441	11.6977	21.4468
55	0.9413	42.8594	28.0355	10.8406
56	1.32845	67.3072	36.342	16.4414
57	1.26733	68.5378	24.4253	6.99137
58	1.20517	16.8805	14.765	11.4288
59	0.910666	28.1096	9.06885	0.958361
60	1.59292	58.7304	17.806	14.0615
61	0.986175	0.504833	12.7502	10.7592
62	0.792187	40.5914	11.743	0.891602
63	0.938339	36.3	36.1137	7.56914
64	0.996154	61.6972	6.00686	17.7879
65	0.852759	67.5651	18.493	16.0132
66	0.843621	35.7644	7.42708	11.0697
67	1.38578	48.7763	19.7046	10.1765
68	0.917313	57.144	22.4212	7.343
69	1.17502	71.6087	21.8051	13.7103
70	0.745828	69.2221	32.3087	12.5544
71	0.707948	15.0809	11.0959	16.111
72	0.855561	32.3374	34.4846	14.615
73	0.625536	2.74095	12.8975	5.81777
74	0.865218	63.2376	26.8849	9.63944
75	0.803554	67.4726	10.7038	12.8291
76	0.934451	39.2264	17.0584	6.82561
77	0.921349	36.222	36.8004	0.973583
78	0.975906	24.2128	9.42386	17.1359
79	1.03078	51.1607	35.9873	10.4723
80	0.80927	6.34693	22.1237	16.3956
81	0.976284	0.538766	36.7146	13.7764
82	1.17116	29.7518	21.8932	1.22468
83	0.890799	6.83573	36.989	3.73234
84	1.03242	63.9888	24.4618	13.4543
85	1.33708	23.5762	21.091	18.5666
86	1.06777	13.887	11.3673	10.4815
87	0.796553	39.1485	18.892	20.1062
88	0.81363	55.353	23.9597	9.32676
89	1.04767	65.8215	27.1816	11.736
90	0.925157	18.0458	2.04559	11.6165
91	0.912561	14.947	10.8232	8.79444
92	1.13566	28.1775	4.10522	15.9001
93	1.19409	25.8568	29.3724	18.1509
94	1.04211	24.7448	36.0556	19.3615
95	0.909733	29.8573	32.3326	8.91406
96	0.874487	3.65887	19.5044	10.7871
97	0.75623	23.4358	27.7083	18.1718
98	1.33053	66.1483	1.41668	21.8038
99	1.20957	37.4138	35.5196	17.6006
100	1.42281	40.8486	34.3108	21.6019
101	1.16764	42.3896	19.5152	21.2186
102	1.35694	13.9484	25.2585	8.5741
103	1.24123	39.2158	23.3828	6.32203
104	1.71783	17.3974	2.88952	21.3511
105	1.1732	0.0571792	30.4395	8.75048
106	1.18197	37.8295	20.5114	15.8683
107	1.1785	46.4566	22.9539	5.53635
108	1.19161	51.8713	13.0721	21.3869
109	0.539472	2.45989	24.1235	16.6156
110	1.00718	26.7787	35.1118	19.6946
111	0.57132	18.0957	19.3826	1.97021
112	1.13394	31.5106	8.44513	7.48524
113	0.857113	11.6079	22.5442	7.86539
114	0.771764	17.9328	1.01645	3.68671
115	0.945996	28.044	11.2226	3.6715
116	1.1579	39.5029	28.446	16.2073
117	1.35669	31.211	24.2709	14.2899
118	1.00541	8.3064	9.71494	6.95184
119	0.632617	10.8449	4.31011	12.4093
120	1.31711	34.5666	35.3328	5.50734
121	0.940143	41.9478	20.777	10.9163
122	1.42204	19.2187	25.0901	2.92767
123	0.869002	4.41055	7.54954	14.3433
124	0.984245	69.495	16.7377	9.91732
125	0.840852	68.7646	28.5133	2.65936
126	0.695748	34.7052	11.0689	3.44888
127	0.866572	48.3929	15.1247	15.7326
128	0.876585	8.92882	23.0648	6.39204
129	1.24867	6.25338	29.8801	1.26765
130	0.738565	29.6607	11.3738	18.7574
131	1.19303	12.6616	30.6983	5.22102
132	1.12136	31.3602	6.13878	12.7811
133	0.862596	46.0886	2.91953	2.64802
134	1.19311	30.1729	19.6734	10.8762
135	0.775155	18.5244	17.0705	13.1307
136	0.904756	74.5281	6.99796	8.31583
137	0.796041	53.0896	34.3236	11.1471
138	1.28399	21.8852	1.08163	11.6894
139	1.05507	25.6209	20.971	5.66609
140	0.923582	11.4257	34.872	16.155
141	1.02199	22.7524	14.5004	8.11387
142	1.02476	20.8277	31.0918	5.66989
143	1.09296	59.3612	21.9559	14.2004
144	0.803573	25.2403	22.4114	4.45105
145	0.977379	70.7219	16.1724	2.09025
146	0.951136	33.6719	31.2911	3.93403
147	0.968414	5.83911	14.6519	9.05489
148	0.91161	34.4292	7.97657	19.3109
149	0.931729	45.1097	7.7234	7.20064
150	1.01287	7.46888	11.9894	14.0101
151	1.22793	67.2361	15.0431	20.431
152	1.0609	64.6616	24.7236	17.4462
153	0.964385	5.39361	33.3127	2.30603
154	0.918323	4.22714	4.06376	10.4553
155	1.24654	74.4118	36.4819	16.4921
156	1.1888	69.9717	25.0828	2.80317
157	1.20227	0.661554	4.74126	8.24784
158	0.875921	58.7472	1.27529	7.86255
159	0.928286	27.6569	26.5133	17.9737
160	1.078	47.766	32.1208	6.29153
161	1.15993	31.5871	31.7085	3.76793
162	0.955931	71.8295	15.8403	12.1402
163	0.941778	47.5139	20.0377	12.1195
164	0.710261	35.0441	5.81607	2.53551
165	0.931513	5.90034	29.9938	12.0775
166	1.06	43.6643	14.1796	5.49236
167	1.25889	21.9054	4.88102	16.8775
168	0.75625	37.7505	22.263	2.51442
169	1.39332	57.5729	0.937157	19.5587
170	1.05818	73.3548	14.5735	11.899
171	0.857074	19.0494	24.0231	14.0423
172	0.847672	2.9311	0.854524	9.65302
173	1.05301	37.5591	33.4759	16.229
174	1.03407	39.2538	6.08549	8.14754
175	1.00507	21.0424	28.139	2.85893
176	0.731696	31.4785	9.90834	0.767069
177	0.85616	39.9557	13.8602	10.7449
178	0.902893	1.33035	32.0767	8.80299
179	1.02195	45.3429	11.0501	8.90079
180	1.16613	39.8508	2.55115	5.90306
181	0.952675	46.2665	25.3504	2.51004
182	1.02042	46.3644	33.6424	3.68314
183	1.09313	41.0975	16.757	7.49158
184	0.745433	68.3473	35.3734	13.2726
185	0.774081	27.0028	16.9825	11.7935
186	0.910696	49.9084	6.18879	12.6481
187	0.974927	35.0431	34.6765	7.58835
188	0.843857	17.019	34.0273	0.938484
189	1.07166	22.8896	31.0948	5.56043
190	1.18023	65.3868	27.9103	13.8118
191	0.882664	4.6047	23.6142	10.8678
192	0.789589	57.6424	26.8424	18.6879
193	1.12738	20.9073	9.55288	3.04333
194	0.656158	72.2729	11.0108	2.31338
195	0.874872	46.4363	21.7971	18.9915
196	0.903624	38.5177	26.6743	15.3369
197	1.2787	52.9522	19.487	16.8873
198	1.00558	13.2098	33.7094	11.9046
199	0.99308	4.94049	4.53096	5.08342
200	0.760582	15.9197	20.5406	9.96135
201	0.738996	47.8509	0.0856003	8.08244
202	0.880253	73.5583	35.2741	3.80763
203	0.865179	14.7905	21.4952	8.7524
204	0.903749	17.5292	23.9365	10.044
205	0.854521	62.3254	15.8174	11.5643
206	0.774921	53.7215	30.7793	9.00198
207	1.06113	73.7996	23.6966	16.6388
208	1.38365	1.0048	31.8833	15.288
209	0.719356	22.504	32.9848	0.787562
210	0.954616	1.44936	23.5159	6.42002
211	0.843516	62.2123	10.6748	18.0999
212	1.01451	49.6337	26.0829	20.0615
213	1.12733	48.2049	29.0613	12.3033
214	0.964181	21.5242	25.6032	16.1224
215	1.17358	58.0917	6.51125	5.99127
216	0.741166	54.7765	19.9513	15.967
217	1.22866	74.1298	6.67098	17.1178
218	0.806023	3.4266	37.1437	7.7496
219	0.913061	62.394	21.7028	13.2419
220	1.05096	32.1566	16.9755	1.10474
221	1.19062	32.2387	9.46361	16.0625
222	0.691663	53.4863	34.5495	5.45028
223	1.12236	26.3938	17.0147	21.2159
224	0.76789	22.0365	2.89019	16.7297
225	0.9453	20.6473	33.8668	16.2207
226	0.697331	24.5151	30.0556	0.707352
227	0.817494	13.5937	27.6973	2.95015
228	0.909494	74.4256	12.7691	8.97568
229	0.877214	51.8134	6.04546	0.926083
230	1.01328	10.0068	7.27823	19.4559
231	1.04514	4.84102	15.5451	13.4631
232	0.967057	49.6249	14.712	6.41762
233	0.937118	37.6049	19.1811	17.5168
234	1.04754	58.46	31.9167	5.20475
235	0.940593	46.5887	35.6438	9.76233
236	0.819893	46.1952	21.8864	14.2766
237	0.867979	19.9697	19.8262	13.481
238	1.1219	17.4531	17.1941	1.13438
239	0.94663	43.4999	17.8424	9.87945
240	0.963795	54.6152	36.9371	12.7134
241	0.921267	37.7526	8.07577	0.944209
242	0.883778	52.3095	13.5227	17.2375
243	0.744157	36.0009	32.7245	14.802
244	0.83374	16.0327	20.5949	5.35854
245	0.739894	73.8716	7.08756	3.11564
246	0.947382	67.8108	30.2927	10.0894
247	0.949635	37.2161	30.8484	17.1942
248	1.17523	27.3183	15.4227	4.58937
249	0.822924	9.88508	14.8363	3.87043
250	1.13623	20.1513	34.4474	1.96633
251	1.10896	69.8423	13.5821	9.06809
252	1.32675	9.7218	26.4708	2.74536
253	0.871634	52.1517	20.071	14.6553
254	0.972164	66.3661	1.92831	5.77681
255	1.19365	73.111	10.6888	8.44798
256	1.00745	43.8609	4.3749	12.7837
257	0.978077	25.3288	13.0201	19.6745
258	1.09664	11.8002	19.6549	19.0152
259	0.972028	4.28133	25.6663	7.92933
260	1.2605	10.5484	35.0144	18.8064
261	1.00546	2.28675	17.3539	4.66589
262	0.948002	72.1258	15.6035	19.085
263	0.985164	15.2741	22.274	5.45617
264	1.05994	53.5182	15.2788	1.09812
265	0.732092	64.4387	14.1565	10.459
266	0.83304	14.5015	34.46	10.8421
267	0.97634	67.6193	30.6781	8.27931
268	1.43483	34.3367	23.6175	15.7323
269	0.883073	61.4032	11.817	12.8718
270	0.92055	51.7288	6.08893	3.88764
271	1.05048	2.5265	6.06546	17.5971
272	0.759707	71.0146	23.7771	15.309
273	1.56613	67.0158	16.9913	5.96972
274	0.964646	71.6573	6.84104	0.983159
275	0.904665	59.1803	10.496	11.0317
276	1.11582	55.4832	3.43478	7.6352
277	0.70034	54.3244	25.523	2.92567
278	0.957269	31.4335	5.44796	5.24104
279	1.29723	1.9658	16.8984	9.04357
280	1.42508	42.0059	28.2344	16.4763
281	1.38759	3.95704	4.08695	17.4445
282	1.30541	38.583	25.9491	3.08226
283	1.00001	52.4541	13.7438	19.084
284	0.83772	68.6957	29.8426	16.8379
285	0.999722	49.3068	4.215	9.78409
286	1.0042	39.7275	22.5923	12.7563
287	1.04628	63.3303	35.7447	5.27431
288	0.764189	44.4059	24.808	2.50469
289	0.767912	2.8107	25.6732	0.846668
290	0.799629	64.0301	8.66981	2.35999
291	1.07117	13.9071	9.79999	7.43961
292	0.820772	2.38368	20.9823	7.72318
293	0.848753	59.936	10.7675	0.93437
294	0.981909	49.0336	31.1414	9.40664
295	0.922115	43.532	37.0863	7.3199
296	0.903282	2.0856	23.199	0.934774
297	0.972116	13.8686	6.14586	10.4433
298	1.02898	56.6073	28.6543	12.9252
299	0.807184	41.3416	31.5217	12.4914
300	0.887022	67.7831	26.2468	3.66332
301	1.00594	39.0014	4.1219	2.18663
302	0.843944	10.0203	10.5939	11.9613
303	1.07422	21.9937	9.5512	1.08418
304	0.863464	26.5483	35.7115	16.4591
305	0.610456	36.4295	23.9272	5.28217
306	0.670654	29.1827	19.5673	16.8589
307	0.863198	66.938	21.7562	16.3268
308	1.27472	13.3784	14.8535	17.1486
309	1.21269	24.0196	31.823	1.27626
310	1.06075	13.5315	31.9398	3.49883
311	0.96669	64.307	20.302	7.61738
312	1.13786	20.4235	1.42523	19.3684
313	0.846602	16.3826	8.19087	5.65055
314	1.22625	18.5579	14.4115	21.147
315	0.93196	8.84321	33.5821	18.6811
316	0.992773	18.411	35.1569	1.04186
317	1.44937	33.4676	18.1845	6.08192
318	0.95079	26.3149	27.3357	8.70417
319	0.893865	27.0081	35.5509	14.7203
320	0.824206	3.32886	14.9477	2.50936
321	0.705912	70.9366	21.8139	10.2758
322	1.20745	56.921	27.8181	5.9292
323	1.40838	15.3647	1.13801	5.89694
324	1.0353	68.0673	5.58692	4.31941
325	1.36089	72.1901	36.198	9.66904
326	1.17793	68.2342	31.7319	17.4374
327	0.581809	7.07562	8.745	4.49427
328	1.14727	39.515	19.0036	16.1593
329	0.91415	59.0633	19.6749	0.980705
330	0.85685	10.0977	16.0033	5.05074
331	0.796688	17.4011	13.6975	0.832155
332	0.73571	10.5983	8.02276	9.97877
333	0.94063	49.3277	30.8304	11.3884
334	1.06271	71.0288	18.0047	18.7724
335	0.776905	66.802	31.3784	10.9778
336	0.990988	17.7201	35.4001	13.9501
337	0.882877	25.2158	15.5047	0.95621
338	0.620041	27.6484	0.118502	11.1294
339	0.867106	20.8357	27.3146	20.2943
340	0.959897	23.6236	14.9004	2.54012
341	0.775575	52.8241	27.2112	11.1632
342	0.964068	26.9141	20.7075	2.68824
343	0.998186	22.5382	28.449	4.09643
344	0.609395	48.7323	7.4497	9.63939
345	1.16273	16.9249	21.4936	12.0252
346	0.987972	60.9365	0.061736	3.71736
347	0.736581	41.1794	22.0211	11.8822
348	0.959881	66.9887	2.82017	11.5267
349	0.897371	1.91073	28.1358	14.4247
350	0.779687	52.9922	25.5194	16.09
351	1.31536	13.6069	19.2382	7.04776
352	0.703963	56.9079	28.7654	4.11619
353	0.844914	25.8213	27.0467	2.65159
354	1.09999	43.5073	24.3859	12.4355
355	1.14891	73.281	16.3232	6.50919
356	0.862366	42.6162	14.676	2.29836
357	0.995465	51.2626	5.62458	13.8431
358	1.31123	36.0973	33.1055	1.32734
359	0.761611	29.8945	32.4784	13.1748
360	1.17414	25.171	34.4358	15.7104
361	1.30281	19.6505	2.85085	4.3467
362	0.765848	31.3595	35.4098	12.2859
363	0.700449	63.4875	34.3012	0.735125
364	0.836027	37.5075	2.6627	7.44095
365	1.01159	61.4363	2.98241	6.06379
366	0.811359	15.9066	32.6268	14.2134
367	1.34018	17.6176	37.1192	21.519
368	1.11244	38.7503	33.7458	8.3683
369	1.15114	19.5222	21.5139	16.7325
370	1.01405	61.6735	29.7119	1.05747
371	0.826331	7.86025	2.34135	0.842285
372	0.970276	62.4422	20.8873	17.4943
373	0.94591	64.5224	8.63835	6.22284
374	0.877479	63.8337	35.4024	8.32015
375	1.14326	64.9708	35.5773	17.1154
376	0.739977	7.95711	9.01042	12.0423
377	0.93894	53.1346	4.25757	1.01331
378	0.817913	1.24541	30.0912	2.06583
379	0.876461	4.37421	18.7784	2.4478
380	1.02886	62.2478	19.4988	13.8869
381	1.17197	41.6072	20.9637	8.86547
382	0.903639	52.3537	22.9003	13.2041
383	0.750969	55.7706	4.31566	13.6205
384	0.751213	36.7654	6.65309	15.6032
385	1.13185	18.7972	15.6792	14.5547
386	0.793171	44.7974	6.55928	5.95047
387	1.39359	37.97	2.52022	9.59714
388	0.971727	56.621	4.12793	3.71654
389	0.923109	14.2385	19.3471	15.7392
390	0.90452	1.3849	27.8507	12.6415
391	1.10918	33.2265	35.3351	8.21959
392	0.937764	26.7987	5.06167	10.921
393	0.88691	19.3463	4.846	3.62212
394	0.853907	34.5727	36.4256	7.33074
395	0.830744	33.9811	18.2011	10.0886
396	1.23895	69.123	10.4497	5.6426
397	1.27741	29.9011	15.8961	11.0208
398	0.818401	17.266	37.2377	4.78871
399	0.935588	47.3655	4.4593	12.2329
400	1.11591	56.8994	13.4027	8.33588
401	1.18528	24.5285	18.6322	18.5954
402	0.936386	30.6644	30.6321	7.07772
403	1.01408	29.9069	7.15973	4.16611
404	0.921413	8.12272	31.4912	4.31232
405	1.04734	68.8143	30.1318	6.8125
406	0.796665	12.8551	8.91422	15.6514
407	0.981233	31.2455	17.288	13.9207
408	0.74945	46.8884	31.9252	0.839975
409	0.771066	16.5537	19.6203	12.1791
410	0.703203	12.9111	7.57648	0.7492
411	0.910714	34.0291	6.29687	19.8382
412	1.19739	26.7322	25.5349	9.82716
413	1.37093	5.0105	23.4039	15.1213
414	0.832619	32.5816	26.1012	10.6977
415	0.932147	67.6985	14.8351	9.26079
416	0.932635	62.9722	34.7188	2.27467
417	1.17527	0.136648	25.184	6.17699
418	0.786375	0.643751	37.2254	2.81913
419	1.11927	23.6986	1.01751	13.5852
420	1.02151	54.9134	3.27591	4.19767
421	0.668374	45.7791	7.12677	15.1962
422	1.03234	20.7666	4.82871	4.93247
423	0.849255	7.24079	8.19825	10.8972
424	0.941239	2.12826	30.473	8.88955
425	1.23628	58.5436	4.66021	4.63582
426	1.0012	22.6224	27.9666	10.8412
427	0.882039	60.2185	3.81787	2.93941
428	0.695459	9.49499	17.5359	8.27509
429	0.97145	47.2523	10.9082	3.7541
430	0.970716	25.6259	26.2764	1.02654
431	1.02126	25.6357	30.0493	3.71475
432	0.955167	67.1531	24.9189	2.62469
433	0.899132	72.0165	22.4133	19.9688
434	1.31256	51.1693	27.5561	9.93345
435	1.05482	26.8468	0.528665	1.10282
436	0.919244	17.4141	10.5829	6.43769
437	1.01968	52.3381	28.1	15.6068
438	1.30638	28.53	3.44457	8.85953
439	1.41055	29.2972	7.83496	12.917
440	0.963419	29.5407	32.6096	0.988507
441	0.791896	31.1996	25.5234	5.02271
442	0.704013	24.8822	16.8566	9.54125
443	1.03647	19.3318	1.00743	10.5762
444	0.906163	19.8441	29.436	3.57726
445	1.02148	66.0604	22.5209	8.89302
446	0.836119	51.8148	7.3341	8.04421
447	1.0719	56.2854	14.432	13.2492
448	1.08261	39.0221	12.7985	19.0881
449	0.872296	26.1085	12.0896	6.88308
450	1.05614	48.7483	3.61204	15.6265
451	0.868771	16.2677	6.60751	0.880341
452	0.959068	68.6554	22.9923	16.2996
453	0.842558	34.9355	20.9214	2.00868
454	1.05999	22.1633	0.165243	20.1325
455	0.969983	64.5715	10.9261	8.5819
456	1.06881	19.7724	12.3637	17.5865
457	0.953939	65.0758	4.3435	16.6943
458	1.12957	46.4392	33.386	14.3603
459	0.778639	17.5684	18.0029	16.9692
460	1.21188	34.6716	1.67954	12.6967
461	1.6312	19.6776	5.15916	10.1376
462	0.652042	5.13787	25.5188	2.03337
463	1.08524	40.8649	30.9477	10.7302
464	0.780886	59.5813	20.0857	13.4441
465	0.996893	17.393	35.0457	11.9803
466	0.800338	68.9311	17.822	7.04498
467	1.18054	8.86612	18.653	10.7923
468	1.13938	20.1568	15.4445	6.30577
469	1.27442	3.21742	1.10241	5.91776
470	0.938221	68.6969	33.1307	15.8338
471	0.802194	47.7027	22.1134	15.0971
472	0.897059	18.1579	15.7575	6.24131
473	0.934447	47.031	2.6159	15.6542
474	0.792865	61.1311	28.704	18.316
475	0.804753	66.4476	20.9462	8.05091
476	1.01829	63.4267	13.8604	3.96371
477	0.987819	62.3836	36.4802	2.68667
478	1.11924	31.6579	12.7688	7.7622
479	1.09279	15.169	21.7059	1.16761
480	0.807941	33.5107	18.1443	3.85061
481	0.651037	38.4561	33.6308	0.683241
482	0.866491	32.4831	17.3838	12.5632
483	0.992754	66.7942	19.4577	2.48931
484	1.03507	44.806	11.6977	15.1599
485	1.56976	2.57846	28.6635	10.4746
486	1.03662	26.428	6.14888	18.2925
487	1.21629	2.31355	10.0317	4.50977
488	0.821896	19.1869	34.5864	10.9958
489	0.689279	24.5859	18.6651	1.89509
490	0.818166	59.8939	6.54476	17.9692
491	1.15371	72.4512	31.6689	5.24652
492	1.10496	50.7613	12.1703	8.69689
493	1.1378	41.3585	23.8717	12.1848
494	0.931239	42.1992	14.867	14.1557
495	0.929712	18.9694	18.7161	0.990456
496	1.22475	31.6941	32.3445	7.82996
497	0.972343	41.5895	25.023	8.8034
498	0.948463	23.2078	10.7146	16.144
499	0.879519	68.1215	19.4559	17.4163
500	1.11115	12.5918	1.51725	10.4938
501	0.916802	54.5271	37.0667	9.92348
502	0.926543	16.1233	15.7848	6.09899
503	0.893054	15.825	10.0863	17.3635
504	0.953977	66.6933	34.2265	3.95087
505	1.06511	56.0568	15.1425	9.27329
506	0.557564	27.3442	21.8047	15.8716
507	0.664888	16.9149	3.76184	0.743935
508	0.817971	25.6102	30.9926	19.5414
509	1.25353	66.7752	26.6264	9.60199
510	0.992069	21.7547	32.22	4.2904
511	1.36031	72.2568	21.6928	4.59947
512	1.01168	4.232	27.0222	9.43992
513	1.21186	22.3881	33.2163	6.07743
514	0.867352	36.7666	9.91031	8.61276
515	0.860382	44.35	24.8087	10.6793
516	0.910862	52.8843	14.7527	9.12093
517	1.19275	49.3859	6.47642	14.6659
518	1.0434	48.7126	34.0406	7.03048
519	0.841513	34.644	22.1441	13.526
520	1.07434	66.071	24.4442	14.0921
521	1.17904	23.2267	2.74205	2.97212
522	1.00704	50.9595	32.2895	12.1579
523	0.880705	1.88108	34.0018	2.70208
524	0.759912	39.2333	15.0447	18.6649
525	0.978967	15.3255	22.4252	14.9257
526	0.958995	30.8974	20.8759	20.2551
527	0.975697	49.8332	3.76905	4.75618
528	0.981762	70.1178	17.1776	8.13729
529	1.05204	42.8876	13.3821	19.063
530	1.14644	66.3856	12.4439	19.9294
531	0.933667	72.5853	3.1755	19.6972
532	1.09027	59.6839	14.9951	14.1903
533	0.925312	62.8904	10.3642	8.04263
534	1.12302	3.59531	28.773	15.4078
535	0.884076	18.2963	29.8192	7.70875
536	0.851911	49.888	33.695	14.6142
537	0.751937	46.619	28.4884	16.5758
538	0.972843	39.1569	11.9622	10.0603
539	0.956043	11.65	14.7836	13.4977
540	1.01764	11.1405	27.4992	4.1429
541	0.933874	33.8428	14.6892	14.1436
542	1.00317	57.4942	0.593381	1.06599
543	1.10582	22.8223	36.4514	12.8128
544	1.02997	29.2233	19.6771	5.91207
545	1.15492	5.28092	28.7902	10.5216
546	1.2361	43.0576	23.6319	20.7801
547	1.11266	22.6038	13.2217	2.99704
548	0.961284	6.10649	25.2499	5.35151
549	0.91114	51.3998	11.7978	17.1874
550	1.34556	30.0015	30.6621	12.1606
551	1.09052	41.4597	10.1097	1.14441
552	1.01872	50.2844	8.45783	7.90379
553	0.948757	25.0859	22.6772	17.8939
554	1.03163	57.2764	26.2138	1.05147
555	0.799116	48.2076	34.9057	20.5936
556	1.00423	67.702	34.6317	1.03861
557	1.11044	35.7617	30.9679	14.2391
558	1.32955	1.42809	1.36634	12.8652
559	0.819231	47.9539	12.8538	13.7571
560	0.706683	31.8505	1.51196	17.1517
561	1.10281	39.3359	15.2599	14.8861
562	0.976273	54.338	8.45796	16.9153
563	1.13395	20.8551	8.89137	21.3997
564	0.61355	16.3153	14.5477	0.642217
565	1.07529	67.9556	32.0212	6.6187
566	0.792293	27.6441	0.121374	18.8569
567	0.943869	15.629	27.6904	5.90526
568	1.01118	30.0576	6.58739	6.06545
569	0.871583	8.59798	33.9091	0.906659
570	1.09204	5.91019	18.5646	15.2883
571	1.14011	14.9664	3.45656	13.3046
572	1.20269	65.4764	9.65086	18.9631
573	1.19641	28.3948	8.16769	2.81495
574	1.11598	68.4953	34.9978	4.57863
575	1.23083	28.5478	1.68044	16.4283
576	1.06543	16.683	5.21644	19.3589
577	1.06288	18.8888	10.0173	4.52671
578	0.977231	50.0446	17.6947	18.489
579	0.779406	11.5117	20.3031	17.1121
580	0.875244	7.96796	13.5293	0.923151
581	0.952227	6.75098	26.936	13.3507
582	1.36644	39.1107	27.6281	8.44436
583	1.16341	9.55676	8.82692	8.50654
584	1.07158	13.5379	28.0275	8.39103
585	0.768086	17.222	20.0403	4.27956
586	1.31635	39.8985	21.3817	16.878
587	0.789424	11.8889	8.65341	0.885715
588	0.961173	10.591	22.1881	16.8183
589	0.955546	0.350159	19.7281	13.7795
590	1.24328	47.5599	11.2905	5.92831
591	1.20143	50.7907	16.8109	16.5838
592	0.866941	58.0547	12.4101	12.7832
593	1.11465	10.7814	24.2851	2.58202
594	1.42537	56.349	23.6954	5.32461
595	0.867239	29.5041	18.9411	9.05604
596	1.09151	51.5933	10.9926	7.07408
597	1.11348	43.8522	19.0508	11.4747
598	0.971867	26.9067	24.8482	1.01943
599	1.33389	15.3098	16.0433	1.36161
600	1.30375	3.24723	30.6854	20.7029
601	0.719439	1.59058	33.6045	14.2009
602	1.02349	70.0759	20.2054	1.08416
603	1.00324	28.5554	35.0584	3.27267
604	0.744854	43.1889	12.91	7.98093
605	0.824519	34.3599	12.7222	16.5573
606	1.20091	65.4094	2.09018	19.4012
607	0.852412	41.6435	26.5557	18.0406
608	0.913676	26.4275	20.0215	15.593
609	0.839864	27.1784	15.9723	7.57545
610	0.991658	70.9977	30.3591	15.9829
611	1.02405	36.4257	8.37625	19.1293
612	0.631312	6.04044	28.0493	9.08802
613	0.97571	34.5007	32.2538	15.4169
614	1.03225	52.329	33.3411	5.98327
615	0.896206	52.2215	24.1891	17.5106
616	1.06573	55.5143	21.1726	1.6549
617	0.642478	20.5261	23.2318	16.2683
618	0.910738	0.595857	36.1404	4.13381
619	1.38296	39.7391	29.6262	2.99609
620	1.44872	10.8056	7.98372	6.3715
621	1.09434	10.0643	8.70133	17.8548
622	0.849193	6.45392	19.9455	14.0179
623	0.872389	27.2619	14.9591	0.942868
624	0.855519	35.1995	0.995278	0.88707
625	0.977731	66.3851	0.898236	4.05958
626	1.42226	37.5059	33.9027	21.4862
627	0.59849	70.7393	12.754	7.88048
628	0.862351	47.3659	33.5631	16.3624
629	0.981265	46.9557	33.9397	10.5644
630	0.88772	62.608	9.42231	10.9599
631	1.05057	52.9225	4.61852	4.3835
632	0.974242	34.3331	34.9117	11.9589
633	0.892664	23.0408	4.75674	5.79353
634	0.881581	24.0719	36.4509	14.3164
635	0.66314	6.54593	20.7575	0.810908
636	0.987032	9.86865	20.0775	5.3042
637	1.07794	2.96161	16.1119	17.185
638	0.77129	51.9032	13.9186	12.3084
639	1.01609	15.6192	18.6922	8.10132
640	1.13642	23.2084	37.074	7.07282
641	0.894841	52.0512	35.1106	5.0991
642	0.732631	45.0252	15.1349	13.5347
643	1.05547	25.7674	33.2402	1.09164
644	0.913203	27.0397	7.90069	17.2999
645	1.47853	41.1618	18.565	14.1727
646	0.874522	46.3101	29.0811	4.88624
647	0.805851	62.4419	23.3684	13.5034
648	0.881415	52.4187	11.0038	8.82213
649	0.75101	13.1649	21.4816	12.3259
650	1.09908	6.00354	11.4296	10.7584
651	0.914024	22.2573	1.21266	17.651
652	1.07703	51.8018	28.2644	4.46125
653	1.04589	71.4168	28.6582	1.09025
654	1.21297	29.3668	33.87	19.9296
655	0.874851	34.0464	2.38577	10.8392
656	0.798281	17.8011	2.51896	3.34625
657	0.676595	15.1518	9.9434	4.05304
658	0.942024	65.7216	9.34926	15.1315
659	0.912053	1.63743	23.7098	12.4048
660	0.965704	12.5652	6.20798	6.06057
661	1.56809	9.24293	34.937	6.18999
662	0.875998	31.4532	3.84128	2.9411
663	0.972285	73.6334	11.7122	2.95718
664	0.821776	46.322	4.24975	16.7397
665	1.67455	2.51235	6.80248	8.30082
666	1.05462	59.011	32.442	7.19255
667	1.12929	33.8902	32.8641	11.7599
668	1.00595	46.4071	8.87262	20.82
669	1.08484	17.7467	28.6008	13.3073
670	0.987354	52.0836	25.6621	10.8525
671	1.32248	41.2891	21.0618	19.2627
672	0.890707	47.2849	23.5757	9.65817
673	0.991964	28.8465	28.2991	17.6641
674	0.780131	37.1591	8.0285	11.6156
675	1.00689	43.3924	16.3296	2.66938
676	0.967382	63.8058	12.8618	18.3355
677	1.3085	0.320448	36.2558	9.89442
678	1.20022	35.632	20.0234	17.4991
679	0.962209	11.3858	7.95187	16.4
680	0.814457	25.2664	9.97125	0.836944
681	0.966697	63.545	12.2413	2.85617
682	1.11034	53.0815	37.102	21.1521
683	0.699315	74.2773	10.0361	7.14202
684	0.836901	37.9504	16.3251	11.1145
685	0.855939	60.4835	8.45734	13.7471
686	0.848966	45.3637	26.0614	10.1036
687	1.07003	37.1014	1.29249	1.11186
688	1.11399	71.5424	12.2948	9.38831
689	1.04686	21.4621	21.2574	1.08243
690	0.780414	55.5176	29.6314	17.8476
691	0.953731	11.5726	28.8783	6.7886
692	1.60291	62.4843	17.5236	4.58547
693	1.16095	33.5761	30.4814	14.698
694	0.866513	40.9748	13.3273	18.1629
695	0.960023	31.8548	9.31068	9.36285
696	1.12511	50.9074	35.6185	3.56183
697	0.684187	21.9258	34.8286	2.07867
698	0.891123	24.504	32.6362	13.7794
699	1.58545	52.3822	25.7546	20.968
700	1.65962	45.7036	15.8339	1.71599
701	1.15897	19.5053	6.54055	5.22249
702	0.873714	56.1407	15.5771	11.155
703	0.954046	42.1114	33.8094	9.58262
704	0.946047	16.4634	32.6869	17.7616
705	0.900173	28.0628	30.0246	17.6918
706	0.877784	22.7725	34.9175	11.6035
707	0.827746	18.6547	15.162	1.94588
708	0.823075	74.5188	23.6946	2.38249
709	1.13412	8.04358	27.9839	3.91905
710	1.33158	18.3728	13.314	2.91201
711	1.16545	6.34155	4.96777	17.5907
712	1.08257	53.1694	33.8824	12.9624
713	0.975952	35.7411	6.15681	1.01963
714	1.12491	49.3689	11.408	4.41824
715	0.813028	56.9474	20.9552	15.4074
716	1.14018	17.3393	31.8144	2.56769
717	1.12921	1.34523	10.9116	20.314
718	0.931551	63.6946	29.2197	5.17421
719	1.08771	67.9462	21.4172	18.1022
720	1.03156	35.1915	31.1986	12.2136
721	0.659681	10.4519	27.7341	7.21153
722	0.925143	56.4196	27.535	9.6852
723	0.761385	25.5228	33.2695	17.3116
724	0.851478	74.0891	17.3984	3.97371
725	1.26032	44.6272	31.6486	8.9294
726	1.12402	9.71226	16.7795	9.88296
727	1.21817	68.0822	17.9692	3.39678
728	0.821497	54.4851	13.8963	13.7955
729	0.951765	26.6967	27.1052	4.18346
730	0.889186	39.8493	15.7389	5.73977
731	0.903314	35.9912	28.2775	2.56505
732	0.817517	41.1252	27.4415	9.45788
733	0.574284	59.0984	5.76838	14.5553
734	1.4282	45.9702	8.97189	3.34208
735	0.798705	65.1767	28.484	0.900307
736	1.00283	20.8419	27.7246	6.91107
737	0.880558	59.0631	31.5758	14.285
738	1.03813	41.5991	26.813	7.77546
739	0.995044	62.5013	2.02403	0.999548
740	0.669683	70.4019	36.386	0.698623
741	0.856048	69.2545	16.756	0.862485
742	0.876035	63.5795	5.99644	17.0598
743	1.15614	27.023	36.4573	2.8986
744	0.995133	34.4413	6.71622	17.8778
745	0.860284	23.8091	26.8072	11.9087
746	1.1734	59.3837	16.4521	8.93082
747	1.01884	16.1277	0.364478	1.13698
748	1.36052	55.784	0.197926	15.2818
749	1.05224	36.9	20.9097	5.08029
750	1.29134	48.8336	1.25948	14.96
751	1.05815	39.165	36.3637	5.68481
752	1.1172	22.4894	20.4416	11.9281
753	0.671491	12.236	21.3692	7.13441
754	0.883456	42.5919	17.3796	17.0695
755	1.02329	15.8311	24.8495	3.00116
756	1.5372	64.2372	16.3931	10.1545
757	0.925799	62.0512	32.3509	0.941482
758	1.01736	22.5058	27.5573	21.2128
759	1.11878	24.6033	28.3605	4.34087
760	1.18837	19.5646	20.9322	19.6718
761	0.863204	13.8496	22.8283	17.4125
762	1.06317	34.1398	23.8239	5.23304
763	0.846992	59.4034	14.6515	17.4156
764	0.714454	59.3819	34.5163	11.9682
765	1.1704	33.9879	35.3357	20.0803
766	1.04519	34.0198	33.7911	9.78668
767	0.849933	48.438	5.24876	11.069
768	1.18664	66.5907	36.5761	10.0832
769	0.957645	23.0717	26.0184	19.1617
770	0.992109	12.2415	29.4022	16.8761
771	0.986599	56.5937	9.7366	20.6442
772	1.23646	37.6076	31.3428	11.8882
773	1.12384	8.48623	8.69967	13.9799
774	0.796986	35.4175	17.551	3.10485
775	0.962841	39.4131	3.53756	4.0521
776	1.17119	63.0338	22.7867	6.87607
777	1.11857	68.6229	23.3702	3.59669
778	1.39548	14.3032	36.7849	8.07599
779	0.866442	26.5535	16.2688	1.74238
780	0.731644	27.6986	23.4532	10.2453
781	1.28366	32.5513	27.0808	4.9778
782	0.880929	29.7913	27.1933	11.094
783	0.844191	53.1642	6.02585	7.60228
784	0.800488	38.4789	9.77714	15.3058
785	1.22947	48.4128	21.783	13.2245
786	1.09359	22.509	13.036	11.4758
787	0.829296	46.2852	27.7235	0.873481
788	1.85583	70.5373	30.6385	10.7658
789	0.921101	54.5595	36.1584	8.3287
790	1.03653	72.0709	36.3621	4.30853
791	1.14901	58.3339	32.5972	15.8541
792	0.910456	42.6512	6.33184	2.72661
793	0.866178	62.4595	36.0003	11.9615
794	0.775699	17.2322	16.7358	12.3048
795	0.828589	29.9099	9.51617	0.91586
796	1.16679	11.2211	17.7778	11.2351
797	1.06215	43.2157	30.1986	17.6262
798	1.18824	60.4263	18.071	16.2114
799	1.18839	63.6278	0.246317	1.22911
800	0.924332	69.8307	17.7828	2.28673
801	1.07283	40.5124	27.3821	2.47384
802	0.648258	45.5565	16.2615	12.3147
803	1.07177	70.6443	25.0823	6.31086
804	1.14271	43.6001	15.9518	19.4858
805	0.975453	41.8539	19.9585	6.0981
806	0.951931	42.0057	16.8636	0.996981
807	0.943964	2.08057	4.5693	6.66248
808	0.946647	17.8388	10.9541	17.7998
809	1.13501	36.8306	16.5225	4.31886
810	1.18313	7.23883	5.88657	7.25577
811	0.702092	70.4992	12.3562	12.323
812	1.04831	31.4147	5.95555	20.5556
813	1.17237	10.7457	2.01363	11.8693
814	1.05931	62.2839	7.57076	14.0807
815	1.21053	71.2357	25.1987	9.32377
816	1.02121	8.99882	12.7984	12.8919
817	0.696081	16.3674	5.72114	2.14199
818	1.21862	48.9576	20.3438	16.595
819	0.920374	48.6569	17.3838	17.1541
820	0.949776	74.1281	2.15179	19.3866
821	0.862595	50.4755	32.7699	15.9229
822	1.01963	28.2743	5.5843	9.8149
823	1.51698	5.4903	31.8389	10.4906
824	1.22511	66.1855	19.0178	7.65167
825	1.12402	36.148	3.94852	7.04475
826	0.605756	31.4173	10.0391	14.5329
827	1.14866	51.5407	10.504	15.5262